 Gaussian 09, Revision D.01,
 Gaussian 09:  ES64L-G09RevD.01 24-Apr-2013

 ------------------------------------------
 #PBEPBE/6-31G* EmpiricalDispersion=GD2 opt
 ------------------------------------------

 -------
 dimeeri
 -------
 Symbolic Z-matrix:
 Charge =  0 Multiplicity = 1

 SCF Done:  E(RPBE-PBE) =  -152.637052486     A.U. after   12 cycles
 SCF Done:  E(RPBE-PBE) =  -152.649944913     A.U. after   11 cycles
 SCF Done:  E(RPBE-PBE) =  -152.654913859     A.U. after   12 cycles
 SCF Done:  E(RPBE-PBE) =  -152.656483798     A.U. after   11 cycles
 SCF Done:  E(RPBE-PBE) =  -152.657152494     A.U. after   11 cycles
 SCF Done:  E(RPBE-PBE) =  -152.657682699     A.U. after   11 cycles
 SCF Done:  E(RPBE-PBE) =  -152.658087670     A.U. after   12 cycles
 SCF Done:  E(RPBE-PBE) =  -152.658642047     A.U. after   12 cycles
 SCF Done:  E(RPBE-PBE) =  -152.659440588     A.U. after   12 cycles
 SCF Done:  E(RPBE-PBE) =  -152.660069288     A.U. after   12 cycles
 SCF Done:  E(RPBE-PBE) =  -152.660165007     A.U. after   10 cycles
 SCF Done:  E(RPBE-PBE) =  -152.660185016     A.U. after   10 cycles
 SCF Done:  E(RPBE-PBE) =  -152.660221654     A.U. after   11 cycles
 SCF Done:  E(RPBE-PBE) =  -152.660243827     A.U. after   10 cycles
 SCF Done:  E(RPBE-PBE) =  -152.660246491     A.U. after    8 cycles
 SCF Done:  E(RPBE-PBE) =  -152.660246751     A.U. after    7 cycles
 SCF Done:  E(RPBE-PBE) =  -152.660246843     A.U. after    6 cycles
 Optimization completed.
    -- Stationary point found.

                         Standard orientation:
 ---------------------------------------------------------------------
 Center     Atomic      Atomic             Coordinates (Angstroms)
 Number     Number       Type             X           Y           Z
 ---------------------------------------------------------------------
      1          8           0        1.389417   -0.111861   -0.044602
      2          1           0        1.279097    0.734329   -0.525214
      3          1           0        1.266906    0.156136    0.889438
      4          8           0       -1.392596    0.110483    0.042769
      5          1           0       -0.505199   -0.288220   -0.124012
      6          1           0       -2.015373   -0.591222   -0.225546
 ---------------------------------------------------------------------

 The electronic state is 1-A.
 Alpha  occ. eigenvalues --  -18.79317 -18.73297  -0.93675  -0.87837  -0.48471
 Alpha  occ. eigenvalues --   -0.43887  -0.34704  -0.29725  -0.25952  -0.20875
 Alpha virt. eigenvalues --    0.01976   0.08150   0.10397   0.19046   0.68902
 Alpha virt. eigenvalues --    0.74317   0.77265   0.79478   0.83653   0.87072
 Alpha virt. eigenvalues --    0.87909   0.94778   0.98155   1.04735   1.14846

 Mulliken charges:
               1
     1  O   -0.732767
     2  H    0.402333
     3  H    0.402207
     4  O   -0.816126
     5  H    0.372188
     6  H    0.372164
 Sum of Mulliken charges =   0.00000

 Dipole moment (field-independent basis, Debye):
    X=              0.7476    Y=              0.0794    Z=              0.0545  Tot=              0.7538
 Quadrupole moment (field-independent basis, Debye-Ang):
   XX=            -13.7761   YY=            -11.9372   ZZ=            -11.6209
   XY=              5.4378   XZ=              2.1204   YZ=             -0.1842

 Normal termination of Gaussian 09 at Thu Jan 29 09:52:38 2015.
