 Gaussian 09, Revision D.01,
 Gaussian 09:  ES64L-G09RevD.01 24-Apr-2013

 ------------------
 # RHF/6-31g** freq
 ------------------

 --------------------------
 freq job with bad geometry
 --------------------------
 Symbolic Z-matrix:
 Charge =  0 Multiplicity = 1

                         Standard orientation:
 ---------------------------------------------------------------------
 Center     Atomic      Atomic             Coordinates (Angstroms)
 Number     Number       Type             X           Y           Z
 ---------------------------------------------------------------------
      1          8           0        0.000000    0.000000    0.110851
      2          1           0        0.000000    0.783837   -0.443405
      3          1           0        0.000000   -0.783837   -0.443405
 ---------------------------------------------------------------------

 SCF Done:  E(RHF) =  -76.0225541476     A.U. after   10 cycles

 The electronic state is 1-A1.
 Alpha  occ. eigenvalues --  -20.55813  -1.33462  -0.71071  -0.55811  -0.49484
 Alpha virt. eigenvalues --    0.21195   0.30441   1.02352   1.06537   1.13406
 Alpha virt. eigenvalues --    1.17043   1.29599   1.39731   1.79308   1.85461
 Alpha virt. eigenvalues --    1.94230   2.53415   2.56218   2.82027   2.95098

 Mulliken charges:
               1
     1  O   -0.684475
     2  H    0.342238
     3  H    0.342238
 Sum of Mulliken charges =   0.00000

 Dipole moment (field-independent basis, Debye):
    X=              0.0000    Y=              0.0000    Z=             -2.0996  Tot=              2.0996
 Quadrupole moment (field-independent basis, Debye-Ang):
   XX=             -7.1728   YY=             -3.8869   ZZ=             -6.0826
   XY=              0.0000   XZ=              0.0000   YZ=              0.0000

  Exact polarizability:   2.931   0.000   7.213   0.000   0.000   4.888
 Approx polarizability:   2.524   0.000   5.823   0.000   0.000   4.114

                      1                      2                      3
                     A1                     A1                     B2
 Frequencies --   1776.4309              3892.9592              4035.7251
 Red. masses --      1.0857                 1.0424                 1.0867
 Frc consts  --      2.0186                 9.3075                10.4284
 IR Inten    --    110.1976                14.5703                67.8750
 Raman Activ --      5.6848                83.5031                37.0048

 - Thermochemistry -
 -------------------
 Temperature   298.150 Kelvin.  Pressure   1.00000 Atm.
 Atom     1 has atomic number  8 and mass  15.99491

 Molecular mass:    18.01056 amu.
 Principal axes and moments of inertia in atomic units:
                           1         2         3
     Eigenvalues --     1.96376   4.42246   6.38622
           X            0.00000   0.00000   1.00000
           Y            1.00000   0.00000   0.00000
           Z            0.00000   1.00000   0.00000
 This molecule is an asymmetric top.
 Rotational symmetry number  2.
 Rotational temperatures (Kelvin)     44.10608    19.58498    13.56260
 Rotational constants (GHZ):         919.02272   408.08521   282.59915
 Zero-point vibrational energy      58049.5 (Joules/Mol)
                                   13.87416 (Kcal/Mol)
 Vibrational temperatures:   2555.88  5601.09  5806.50
          (Kelvin)

 Zero-point correction=                           0.022110 (Hartree/Particle)
 Thermal correction to Energy=                    0.024944
 Thermal correction to Enthalpy=                  0.025888
 Thermal correction to Gibbs Free Energy=         0.004494
 Sum of electronic and zero-point Energies=            -76.000444
 Sum of electronic and thermal Energies=               -75.997610
 Sum of electronic and thermal Enthalpies=             -75.996666
 Sum of electronic and thermal Free Energies=          -76.018060

                     E (Thermal)             CV                S
                      KCal/Mol        Cal/Mol-Kelvin    Cal/Mol-Kelvin
 Total                   15.653              5.989             45.027
 Electronic               0.000              0.000              0.000
 Translational            0.889              2.981             34.608
 Rotational               0.889              2.981             10.415
 Vibrational             13.875              0.028              0.004

 Normal termination of Gaussian 09 at Tue Feb  3 18:10:58 2015.
